 # Sr1 Ti1 O3

       40000  atoms
           3  atom types

      0.00000000      78.90260300  xlo xhi
      0.00000000      78.90260300  ylo yhi
      0.00000000      78.90260300  zlo zhi

Masses

           1   87.62000000    # Sr
           2   47.86700000    # Ti
           3   15.99940000    # O 

Atoms # charge

         1    1        1.33100000       1.97256508       1.97256508       1.97256508
         2    1        1.33100000       1.97256508       1.97256508       5.91769523
         3    1        1.33100000       1.97256508       1.97256508       9.86282537
         4    1        1.33100000       1.97256508       1.97256508      13.80795552
         5    1        1.33100000       1.97256508       1.97256508      17.75308568
         6    1        1.33100000       1.97256508       1.97256508      21.69821583
         7    1        1.33100000       1.97256508       1.97256508      25.64334597
         8    1        1.33100000       1.97256508       1.97256508      29.58847612
         9    1        1.33100000       1.97256508       1.97256508      33.53360627
        10    1        1.33100000       1.97256508       1.97256508      37.47873643
        11    1        1.33100000       1.97256508       1.97256508      41.42386657
        12    1        1.33100000       1.97256508       1.97256508      45.36899672
        13    1        1.33100000       1.97256508       1.97256508      49.31412687
        14    1        1.33100000       1.97256508       1.97256508      53.25925703
        15    1        1.33100000       1.97256508       1.97256508      57.20438718
        16    1        1.33100000       1.97256508       1.97256508      61.14951732
        17    1        1.33100000       1.97256508       1.97256508      65.09464748
        18    1        1.33100000       1.97256508       1.97256508      69.03977762
        19    1        1.33100000       1.97256508       1.97256508      72.98490777
        20    1        1.33100000       1.97256508       1.97256508      76.93003792
        21    1        1.33100000       1.97256508       5.91769523       1.97256508
        22    1        1.33100000       1.97256508       5.91769523       5.91769523
        23    1        1.33100000       1.97256508       5.91769523       9.86282537
        24    1        1.33100000       1.97256508       5.91769523      13.80795552
        25    1        1.33100000       1.97256508       5.91769523      17.75308568
        26    1        1.33100000       1.97256508       5.91769523      21.69821583
        27    1        1.33100000       1.97256508       5.91769523      25.64334597
        28    1        1.33100000       1.97256508       5.91769523      29.58847612
        29    1        1.33100000       1.97256508       5.91769523      33.53360627
        30    1        1.33100000       1.97256508       5.91769523      37.47873643
        31    1        1.33100000       1.97256508       5.91769523      41.42386657
        32    1        1.33100000       1.97256508       5.91769523      45.36899672
        33    1        1.33100000       1.97256508       5.91769523      49.31412687
        34    1        1.33100000       1.97256508       5.91769523      53.25925703
        35    1        1.33100000       1.97256508       5.91769523      57.20438718
        36    1        1.33100000       1.97256508       5.91769523      61.14951732
        37    1        1.33100000       1.97256508       5.91769523      65.09464748
        38    1        1.33100000       1.97256508       5.91769523      69.03977762
        39    1        1.33100000       1.97256508       5.91769523      72.98490777
        40    1        1.33100000       1.97256508       5.91769523      76.93003792
        41    1        1.33100000       1.97256508       9.86282537       1.97256508
        42    1        1.33100000       1.97256508       9.86282537       5.91769523
        43    1        1.33100000       1.97256508       9.86282537       9.86282537
        44    1        1.33100000       1.97256508       9.86282537      13.80795552
        45    1        1.33100000       1.97256508       9.86282537      17.75308568
        46    1        1.33100000       1.97256508       9.86282537      21.69821583
        47    1        1.33100000       1.97256508       9.86282537      25.64334597
        48    1        1.33100000       1.97256508       9.86282537      29.58847612
        49    1        1.33100000       1.97256508       9.86282537      33.53360627
        50    1        1.33100000       1.97256508       9.86282537      37.47873643
        51    1        1.33100000       1.97256508       9.86282537      41.42386657
        52    1        1.33100000       1.97256508       9.86282537      45.36899672
        53    1        1.33100000       1.97256508       9.86282537      49.31412687
        54    1        1.33100000       1.97256508       9.86282537      53.25925703
        55    1        1.33100000       1.97256508       9.86282537      57.20438718
        56    1        1.33100000       1.97256508       9.86282537      61.14951732
        57    1        1.33100000       1.97256508       9.86282537      65.09464748
        58    1        1.33100000       1.97256508       9.86282537      69.03977762
        59    1        1.33100000       1.97256508       9.86282537      72.98490777
        60    1        1.33100000       1.97256508       9.86282537      76.93003792
        61    1        1.33100000       1.97256508      13.80795552       1.97256508
        62    1        1.33100000       1.97256508      13.80795552       5.91769523
        63    1        1.33100000       1.97256508      13.80795552       9.86282537
        64    1        1.33100000       1.97256508      13.80795552      13.80795552
        65    1        1.33100000       1.97256508      13.80795552      17.75308568
        66    1        1.33100000       1.97256508      13.80795552      21.69821583
        67    1        1.33100000       1.97256508      13.80795552      25.64334597
        68    1        1.33100000       1.97256508      13.80795552      29.58847612
        69    1        1.33100000       1.97256508      13.80795552      33.53360627
        70    1        1.33100000       1.97256508      13.80795552      37.47873643
        71    1        1.33100000       1.97256508      13.80795552      41.42386657
        72    1        1.33100000       1.97256508      13.80795552      45.36899672
        73    1        1.33100000       1.97256508      13.80795552      49.31412687
        74    1        1.33100000       1.97256508      13.80795552      53.25925703
        75    1        1.33100000       1.97256508      13.80795552      57.20438718
        76    1        1.33100000       1.97256508      13.80795552      61.14951732
        77    1        1.33100000       1.97256508      13.80795552      65.09464748
        78    1        1.33100000       1.97256508      13.80795552      69.03977762
        79    1        1.33100000       1.97256508      13.80795552      72.98490777
        80    1        1.33100000       1.97256508      13.80795552      76.93003792
        81    1        1.33100000       1.97256508      17.75308568       1.97256508
        82    1        1.33100000       1.97256508      17.75308568       5.91769523
        83    1        1.33100000       1.97256508      17.75308568       9.86282537
        84    1        1.33100000       1.97256508      17.75308568      13.80795552
        85    1        1.33100000       1.97256508      17.75308568      17.75308568
        86    1        1.33100000       1.97256508      17.75308568      21.69821583
        87    1        1.33100000       1.97256508      17.75308568      25.64334597
        88    1        1.33100000       1.97256508      17.75308568      29.58847612
        89    1        1.33100000       1.97256508      17.75308568      33.53360627
        90    1        1.33100000       1.97256508      17.75308568      37.47873643
        91    1        1.33100000       1.97256508      17.75308568      41.42386657
        92    1        1.33100000       1.97256508      17.75308568      45.36899672
        93    1        1.33100000       1.97256508      17.75308568      49.31412687
        94    1        1.33100000       1.97256508      17.75308568      53.25925703
        95    1        1.33100000       1.97256508      17.75308568      57.20438718
        96    1        1.33100000       1.97256508      17.75308568      61.14951732
        97    1        1.33100000       1.97256508      17.75308568      65.09464748
        98    1        1.33100000       1.97256508      17.75308568      69.03977762
        99    1        1.33100000       1.97256508      17.75308568      72.98490777
       100    1        1.33100000       1.97256508      17.75308568      76.93003792
       101    1        1.33100000       1.97256508      21.69821583       1.97256508
       102    1        1.33100000       1.97256508      21.69821583       5.91769523
       103    1        1.33100000       1.97256508      21.69821583       9.86282537
       104    1        1.33100000       1.97256508      21.69821583      13.80795552
       105    1        1.33100000       1.97256508      21.69821583      17.75308568
       106    1        1.33100000       1.97256508      21.69821583      21.69821583
       107    1        1.33100000       1.97256508      21.69821583      25.64334597
       108    1        1.33100000       1.97256508      21.69821583      29.58847612
       109    1        1.33100000       1.97256508      21.69821583      33.53360627
       110    1        1.33100000       1.97256508      21.69821583      37.47873643
       111    1        1.33100000       1.97256508      21.69821583      41.42386657
       112    1        1.33100000       1.97256508      21.69821583      45.36899672
       113    1        1.33100000       1.97256508      21.69821583      49.31412687
       114    1        1.33100000       1.97256508      21.69821583      53.25925703
       115    1        1.33100000       1.97256508      21.69821583      57.20438718
       116    1        1.33100000       1.97256508      21.69821583      61.14951732
       117    1        1.33100000       1.97256508      21.69821583      65.09464748
       118    1        1.33100000       1.97256508      21.69821583      69.03977762
       119    1        1.33100000       1.97256508      21.69821583      72.98490777
       120    1        1.33100000       1.97256508      21.69821583      76.93003792
       121    1        1.33100000       1.97256508      25.64334597       1.97256508
       122    1        1.33100000       1.97256508      25.64334597       5.91769523
       123    1        1.33100000       1.97256508      25.64334597       9.86282537
       124    1        1.33100000       1.97256508      25.64334597      13.80795552
       125    1        1.33100000       1.97256508      25.64334597      17.75308568
       126    1        1.33100000       1.97256508      25.64334597      21.69821583
       127    1        1.33100000       1.97256508      25.64334597      25.64334597
       128    1        1.33100000       1.97256508      25.64334597      29.58847612
       129    1        1.33100000       1.97256508      25.64334597      33.53360627
       130    1        1.33100000       1.97256508      25.64334597      37.47873643
       131    1        1.33100000       1.97256508      25.64334597      41.42386657
       132    1        1.33100000       1.97256508      25.64334597      45.36899672
       133    1        1.33100000       1.97256508      25.64334597      49.31412687
       134    1        1.33100000       1.97256508      25.64334597      53.25925703
       135    1        1.33100000       1.97256508      25.64334597      57.20438718
       136    1        1.33100000       1.97256508      25.64334597      61.14951732
       137    1        1.33100000       1.97256508      25.64334597      65.09464748
       138    1        1.33100000       1.97256508      25.64334597      69.03977762
       139    1        1.33100000       1.97256508      25.64334597      72.98490777
       140    1        1.33100000       1.97256508      25.64334597      76.93003792
       141    1        1.33100000       1.97256508      29.58847612       1.97256508
       142    1        1.33100000       1.97256508      29.58847612       5.91769523
       143    1        1.33100000       1.97256508      29.58847612       9.86282537
       144    1        1.33100000       1.97256508      29.58847612      13.80795552
       145    1        1.33100000       1.97256508      29.58847612      17.75308568
       146    1        1.33100000       1.97256508      29.58847612      21.69821583
       147    1        1.33100000       1.97256508      29.58847612      25.64334597
       148    1        1.33100000       1.97256508      29.58847612      29.58847612
       149    1        1.33100000       1.97256508      29.58847612      33.53360627
       150    1        1.33100000       1.97256508      29.58847612      37.47873643
       151    1        1.33100000       1.97256508      29.58847612      41.42386657
       152    1        1.33100000       1.97256508      29.58847612      45.36899672
       153    1        1.33100000       1.97256508      29.58847612      49.31412687
       154    1        1.33100000       1.97256508      29.58847612      53.25925703
       155    1        1.33100000       1.97256508      29.58847612      57.20438718
       156    1        1.33100000       1.97256508      29.58847612      61.14951732
       157    1        1.33100000       1.97256508      29.58847612      65.09464748
       158    1        1.33100000       1.97256508      29.58847612      69.03977762
       159    1        1.33100000       1.97256508      29.58847612      72.98490777
       160    1        1.33100000       1.97256508      29.58847612      76.93003792
       161    1        1.33100000       1.97256508      33.53360627       1.97256508
       162    1        1.33100000       1.97256508      33.53360627       5.91769523
       163    1        1.33100000       1.97256508      33.53360627       9.86282537
       164    1        1.33100000       1.97256508      33.53360627      13.80795552
       165    1        1.33100000       1.97256508      33.53360627      17.75308568
       166    1        1.33100000       1.97256508      33.53360627      21.69821583
       167    1        1.33100000       1.97256508      33.53360627      25.64334597
       168    1        1.33100000       1.97256508      33.53360627      29.58847612
       169    1        1.33100000       1.97256508      33.53360627      33.53360627
       170    1        1.33100000       1.97256508      33.53360627      37.47873643
       171    1        1.33100000       1.97256508      33.53360627      41.42386657
       172    1        1.33100000       1.97256508      33.53360627      45.36899672
       173    1        1.33100000       1.97256508      33.53360627      49.31412687
       174    1        1.33100000       1.97256508      33.53360627      53.25925703
       175    1        1.33100000       1.97256508      33.53360627      57.20438718
       176    1        1.33100000       1.97256508      33.53360627      61.14951732
       177    1        1.33100000       1.97256508      33.53360627      65.09464748
       178    1        1.33100000       1.97256508      33.53360627      69.03977762
       179    1        1.33100000       1.97256508      33.53360627      72.98490777
       180    1        1.33100000       1.97256508      33.53360627      76.93003792
       181    1        1.33100000       1.97256508      37.47873643       1.97256508
       182    1        1.33100000       1.97256508      37.47873643       5.91769523
       183    1        1.33100000       1.97256508      37.47873643       9.86282537
       184    1        1.33100000       1.97256508      37.47873643      13.80795552
       185    1        1.33100000       1.97256508      37.47873643      17.75308568
       186    1        1.33100000       1.97256508      37.47873643      21.69821583
       187    1        1.33100000       1.97256508      37.47873643      25.64334597
       188    1        1.33100000       1.97256508      37.47873643      29.58847612
       189    1        1.33100000       1.97256508      37.47873643      33.53360627
       190    1        1.33100000       1.97256508      37.47873643      37.47873643
       191    1        1.33100000       1.97256508      37.47873643      41.42386657
       192    1        1.33100000       1.97256508      37.47873643      45.36899672
       193    1        1.33100000       1.97256508      37.47873643      49.31412687
       194    1        1.33100000       1.97256508      37.47873643      53.25925703
       195    1        1.33100000       1.97256508      37.47873643      57.20438718
       196    1        1.33100000       1.97256508      37.47873643      61.14951732
       197    1        1.33100000       1.97256508      37.47873643      65.09464748
       198    1        1.33100000       1.97256508      37.47873643      69.03977762
       199    1        1.33100000       1.97256508      37.47873643      72.98490777
       200    1        1.33100000       1.97256508      37.47873643      76.93003792
       201    1        1.33100000       1.97256508      41.42386657       1.97256508
       202    1        1.33100000       1.97256508      41.42386657       5.91769523
       203    1        1.33100000       1.97256508      41.42386657       9.86282537
       204    1        1.33100000       1.97256508      41.42386657      13.80795552
       205    1        1.33100000       1.97256508      41.42386657      17.75308568
       206    1        1.33100000       1.97256508      41.42386657      21.69821583
       207    1        1.33100000       1.97256508      41.42386657      25.64334597
       208    1        1.33100000       1.97256508      41.42386657      29.58847612
       209    1        1.33100000       1.97256508      41.42386657      33.53360627
       210    1        1.33100000       1.97256508      41.42386657      37.47873643
       211    1        1.33100000       1.97256508      41.42386657      41.42386657
       212    1        1.33100000       1.97256508      41.42386657      45.36899672
       213    1        1.33100000       1.97256508      41.42386657      49.31412687
       214    1        1.33100000       1.97256508      41.42386657      53.25925703
       215    1        1.33100000       1.97256508      41.42386657      57.20438718
       216    1        1.33100000       1.97256508      41.42386657      61.14951732
       217    1        1.33100000       1.97256508      41.42386657      65.09464748
       218    1        1.33100000       1.97256508      41.42386657      69.03977762
       219    1        1.33100000       1.97256508      41.42386657      72.98490777
       220    1        1.33100000       1.97256508      41.42386657      76.93003792
       221    1        1.33100000       1.97256508      45.36899672       1.97256508
       222    1        1.33100000       1.97256508      45.36899672       5.91769523
       223    1        1.33100000       1.97256508      45.36899672       9.86282537
       224    1        1.33100000       1.97256508      45.36899672      13.80795552
       225    1        1.33100000       1.97256508      45.36899672      17.75308568
       226    1        1.33100000       1.97256508      45.36899672      21.69821583
       227    1        1.33100000       1.97256508      45.36899672      25.64334597
       228    1        1.33100000       1.97256508      45.36899672      29.58847612
       229    1        1.33100000       1.97256508      45.36899672      33.53360627
       230    1        1.33100000       1.97256508      45.36899672      37.47873643
       231    1        1.33100000       1.97256508      45.36899672      41.42386657
       232    1        1.33100000       1.97256508      45.36899672      45.36899672
       233    1        1.33100000       1.97256508      45.36899672      49.31412687
       234    1        1.33100000       1.97256508      45.36899672      53.25925703
       235    1        1.33100000       1.97256508      45.36899672      57.20438718
       236    1        1.33100000       1.97256508      45.36899672      61.14951732
       237    1        1.33100000       1.97256508      45.36899672      65.09464748
       238    1        1.33100000       1.97256508      45.36899672      69.03977762
       239    1        1.33100000       1.97256508      45.36899672      72.98490777
       240    1        1.33100000       1.97256508      45.36899672      76.93003792
       241    1        1.33100000       1.97256508      49.31412687       1.97256508
       242    1        1.33100000       1.97256508      49.31412687       5.91769523
       243    1        1.33100000       1.97256508      49.31412687       9.86282537
       244    1        1.33100000       1.97256508      49.31412687      13.80795552
       245    1        1.33100000       1.97256508      49.31412687      17.75308568
       246    1        1.33100000       1.97256508      49.31412687      21.69821583
       247    1        1.33100000       1.97256508      49.31412687      25.64334597
       248    1        1.33100000       1.97256508      49.31412687      29.58847612
       249    1        1.33100000       1.97256508      49.31412687      33.53360627
       250    1        1.33100000       1.97256508      49.31412687      37.47873643
       251    1        1.33100000       1.97256508      49.31412687      41.42386657
       252    1        1.33100000       1.97256508      49.31412687      45.36899672
       253    1        1.33100000       1.97256508      49.31412687      49.31412687
       254    1        1.33100000       1.97256508      49.31412687      53.25925703
       255    1        1.33100000       1.97256508      49.31412687      57.20438718
       256    1        1.33100000       1.97256508      49.31412687      61.14951732
       257    1        1.33100000       1.97256508      49.31412687      65.09464748
       258    1        1.33100000       1.97256508      49.31412687      69.03977762
       259    1        1.33100000       1.97256508      49.31412687      72.98490777
       260    1        1.33100000       1.97256508      49.31412687      76.93003792
       261    1        1.33100000       1.97256508      53.25925703       1.97256508
       262    1        1.33100000       1.97256508      53.25925703       5.91769523
       263    1        1.33100000       1.97256508      53.25925703       9.86282537
       264    1        1.33100000       1.97256508      53.25925703      13.80795552
       265    1        1.33100000       1.97256508      53.25925703      17.75308568
       266    1        1.33100000       1.97256508      53.25925703      21.69821583
       267    1        1.33100000       1.97256508      53.25925703      25.64334597
       268    1        1.33100000       1.97256508      53.25925703      29.58847612
       269    1        1.33100000       1.97256508      53.25925703      33.53360627
       270    1        1.33100000       1.97256508      53.25925703      37.47873643
       271    1        1.33100000       1.97256508      53.25925703      41.42386657
       272    1        1.33100000       1.97256508      53.25925703      45.36899672
       273    1        1.33100000       1.97256508      53.25925703      49.31412687
       274    1        1.33100000       1.97256508      53.25925703      53.25925703
       275    1        1.33100000       1.97256508      53.25925703      57.20438718
       276    1        1.33100000       1.97256508      53.25925703      61.14951732
       277    1        1.33100000       1.97256508      53.25925703      65.09464748
       278    1        1.33100000       1.97256508      53.25925703      69.03977762
       279    1        1.33100000       1.97256508      53.25925703      72.98490777
       280    1        1.33100000       1.97256508      53.25925703      76.93003792
       281    1        1.33100000       1.97256508      57.20438718       1.97256508
       282    1        1.33100000       1.97256508      57.20438718       5.91769523
       283    1        1.33100000       1.97256508      57.20438718       9.86282537
       284    1        1.33100000       1.97256508      57.20438718      13.80795552
       285    1        1.33100000       1.97256508      57.20438718      17.75308568
       286    1        1.33100000       1.97256508      57.20438718      21.69821583
       287    1        1.33100000       1.97256508      57.20438718      25.64334597
       288    1        1.33100000       1.97256508      57.20438718      29.58847612
       289    1        1.33100000       1.97256508      57.20438718      33.53360627
       290    1        1.33100000       1.97256508      57.20438718      37.47873643
       291    1        1.33100000       1.97256508      57.20438718      41.42386657
       292    1        1.33100000       1.97256508      57.20438718      45.36899672
       293    1        1.33100000       1.97256508      57.20438718      49.31412687
       294    1        1.33100000       1.97256508      57.20438718      53.25925703
       295    1        1.33100000       1.97256508      57.20438718      57.20438718
       296    1        1.33100000       1.97256508      57.20438718      61.14951732
       297    1        1.33100000       1.97256508      57.20438718      65.09464748
       298    1        1.33100000       1.97256508      57.20438718      69.03977762
       299    1        1.33100000       1.97256508      57.20438718      72.98490777
       300    1        1.33100000       1.97256508      57.20438718      76.93003792
       301    1        1.33100000       1.97256508      61.14951732       1.97256508
       302    1        1.33100000       1.97256508      61.14951732       5.91769523
       303    1        1.33100000       1.97256508      61.14951732       9.86282537
       304    1        1.33100000       1.97256508      61.14951732      13.80795552
       305    1        1.33100000       1.97256508      61.14951732      17.75308568
       306    1        1.33100000       1.97256508      61.14951732      21.69821583
       307    1        1.33100000       1.97256508      61.14951732      25.64334597
       308    1        1.33100000       1.97256508      61.14951732      29.58847612
       309    1        1.33100000       1.97256508      61.14951732      33.53360627
       310    1        1.33100000       1.97256508      61.14951732      37.47873643
       311    1        1.33100000       1.97256508      61.14951732      41.42386657
       312    1        1.33100000       1.97256508      61.14951732      45.36899672
       313    1        1.33100000       1.97256508      61.14951732      49.31412687
       314    1        1.33100000       1.97256508      61.14951732      53.25925703
       315    1        1.33100000       1.97256508      61.14951732      57.20438718
       316    1        1.33100000       1.97256508      61.14951732      61.14951732
       317    1        1.33100000       1.97256508      61.14951732      65.09464748
       318    1        1.33100000       1.97256508      61.14951732      69.03977762
       319    1        1.33100000       1.97256508      61.14951732      72.98490777
       320    1        1.33100000       1.97256508      61.14951732      76.93003792
       321    1        1.33100000       1.97256508      65.09464748       1.97256508
       322    1        1.33100000       1.97256508      65.09464748       5.91769523
       323    1        1.33100000       1.97256508      65.09464748       9.86282537
       324    1        1.33100000       1.97256508      65.09464748      13.80795552
       325    1        1.33100000       1.97256508      65.09464748      17.75308568
       326    1        1.33100000       1.97256508      65.09464748      21.69821583
       327    1        1.33100000       1.97256508      65.09464748      25.64334597
       328    1        1.33100000       1.97256508      65.09464748      29.58847612
       329    1        1.33100000       1.97256508      65.09464748      33.53360627
       330    1        1.33100000       1.97256508      65.09464748      37.47873643
       331    1        1.33100000       1.97256508      65.09464748      41.42386657
       332    1        1.33100000       1.97256508      65.09464748      45.36899672
       333    1        1.33100000       1.97256508      65.09464748      49.31412687
       334    1        1.33100000       1.97256508      65.09464748      53.25925703
       335    1        1.33100000       1.97256508      65.09464748      57.20438718
       336    1        1.33100000       1.97256508      65.09464748      61.14951732
       337    1        1.33100000       1.97256508      65.09464748      65.09464748
       338    1        1.33100000       1.97256508      65.09464748      69.03977762
       339    1        1.33100000       1.97256508      65.09464748      72.98490777
       340    1        1.33100000       1.97256508      65.09464748      76.93003792
       341    1        1.33100000       1.97256508      69.03977762       1.97256508
       342    1        1.33100000       1.97256508      69.03977762       5.91769523
       343    1        1.33100000       1.97256508      69.03977762       9.86282537
       344    1        1.33100000       1.97256508      69.03977762      13.80795552
       345    1        1.33100000       1.97256508      69.03977762      17.75308568
       346    1        1.33100000       1.97256508      69.03977762      21.69821583
       347    1        1.33100000       1.97256508      69.03977762      25.64334597
       348    1        1.33100000       1.97256508      69.03977762      29.58847612
       349    1        1.33100000       1.97256508      69.03977762      33.53360627