 # C1

        2744  atoms
           1  atom types

      0.00000000      29.18300000  xlo xhi
      0.00000000      29.18300000  ylo yhi
      0.00000000      29.18300000  zlo zhi

Masses

           1   12.01070000    # C 

Atoms # charge

         1    1        0.00000000       0.00000000       0.00000000       0.00000000
         2    1        0.00000000       1.04224166       3.12675417       3.12675417
         3    1        0.00000000       2.08451251       0.00000000       2.08451251
         4    1        0.00000000       0.00000000       2.08451251       2.08451251
         5    1        0.00000000       2.08451251       2.08451251       0.00000000
         6    1        0.00000000       3.12675417       1.04224166       3.12675417
         7    1        0.00000000       3.12675417       3.12675417       1.04224166
         8    1        0.00000000       1.04224166       1.04224166       1.04224166
         9    1        0.00000000       0.00000000       0.00000000       4.16899583
        10    1        0.00000000       1.04224166       3.12675417       7.29575000
        11    1        0.00000000       2.08451251       0.00000000       6.25350834
        12    1        0.00000000       0.00000000       2.08451251       6.25350834
        13    1        0.00000000       2.08451251       2.08451251       4.16899583
        14    1        0.00000000       3.12675417       1.04224166       7.29575000
        15    1        0.00000000       3.12675417       3.12675417       5.21123749
        16    1        0.00000000       1.04224166       1.04224166       5.21123749
        17    1        0.00000000       0.00000000       0.00000000       8.33799166
        18    1        0.00000000       1.04224166       3.12675417      11.46474583
        19    1        0.00000000       2.08451251       0.00000000      10.42250417
        20    1        0.00000000       0.00000000       2.08451251      10.42250417
        21    1        0.00000000       2.08451251       2.08451251       8.33799166
        22    1        0.00000000       3.12675417       1.04224166      11.46474583
        23    1        0.00000000       3.12675417       3.12675417       9.38026251
        24    1        0.00000000       1.04224166       1.04224166       9.38026251
        25    1        0.00000000       0.00000000       0.00000000      12.50698749
        26    1        0.00000000       1.04224166       3.12675417      15.63374166
        27    1        0.00000000       2.08451251       0.00000000      14.59150000
        28    1        0.00000000       0.00000000       2.08451251      14.59150000
        29    1        0.00000000       2.08451251       2.08451251      12.50698749
        30    1        0.00000000       3.12675417       1.04224166      15.63374166
        31    1        0.00000000       3.12675417       3.12675417      13.54925834
        32    1        0.00000000       1.04224166       1.04224166      13.54925834
        33    1        0.00000000       0.00000000       0.00000000      16.67601251
        34    1        0.00000000       1.04224166       3.12675417      19.80273749
        35    1        0.00000000       2.08451251       0.00000000      18.76049583
        36    1        0.00000000       0.00000000       2.08451251      18.76049583
        37    1        0.00000000       2.08451251       2.08451251      16.67601251
        38    1        0.00000000       3.12675417       1.04224166      19.80273749
        39    1        0.00000000       3.12675417       3.12675417      17.71825417
        40    1        0.00000000       1.04224166       1.04224166      17.71825417
        41    1        0.00000000       0.00000000       0.00000000      20.84500834
        42    1        0.00000000       1.04224166       3.12675417      23.97176251
        43    1        0.00000000       2.08451251       0.00000000      22.92949166
        44    1        0.00000000       0.00000000       2.08451251      22.92949166
        45    1        0.00000000       2.08451251       2.08451251      20.84500834
        46    1        0.00000000       3.12675417       1.04224166      23.97176251
        47    1        0.00000000       3.12675417       3.12675417      21.88725000
        48    1        0.00000000       1.04224166       1.04224166      21.88725000
        49    1        0.00000000       0.00000000       0.00000000      25.01400417
        50    1        0.00000000       1.04224166       3.12675417      28.14075834
        51    1        0.00000000       2.08451251       0.00000000      27.09848749
        52    1        0.00000000       0.00000000       2.08451251      27.09848749
        53    1        0.00000000       2.08451251       2.08451251      25.01400417
        54    1        0.00000000       3.12675417       1.04224166      28.14075834
        55    1        0.00000000       3.12675417       3.12675417      26.05624583
        56    1        0.00000000       1.04224166       1.04224166      26.05624583
        57    1        0.00000000       0.00000000       4.16899583       0.00000000
        58    1        0.00000000       1.04224166       7.29575000       3.12675417
        59    1        0.00000000       2.08451251       4.16899583       2.08451251
        60    1        0.00000000       0.00000000       6.25350834       2.08451251
        61    1        0.00000000       2.08451251       6.25350834       0.00000000
        62    1        0.00000000       3.12675417       5.21123749       3.12675417
        63    1        0.00000000       3.12675417       7.29575000       1.04224166
        64    1        0.00000000       1.04224166       5.21123749       1.04224166
        65    1        0.00000000       0.00000000       4.16899583       4.16899583
        66    1        0.00000000       1.04224166       7.29575000       7.29575000
        67    1        0.00000000       2.08451251       4.16899583       6.25350834
        68    1        0.00000000       0.00000000       6.25350834       6.25350834
        69    1        0.00000000       2.08451251       6.25350834       4.16899583
        70    1        0.00000000       3.12675417       5.21123749       7.29575000
        71    1        0.00000000       3.12675417       7.29575000       5.21123749
        72    1        0.00000000       1.04224166       5.21123749       5.21123749
        73    1        0.00000000       0.00000000       4.16899583       8.33799166
        74    1        0.00000000       1.04224166       7.29575000      11.46474583
        75    1        0.00000000       2.08451251       4.16899583      10.42250417
        76    1        0.00000000       0.00000000       6.25350834      10.42250417
        77    1        0.00000000       2.08451251       6.25350834       8.33799166
        78    1        0.00000000       3.12675417       5.21123749      11.46474583
        79    1        0.00000000       3.12675417       7.29575000       9.38026251
        80    1        0.00000000       1.04224166       5.21123749       9.38026251
        81    1        0.00000000       0.00000000       4.16899583      12.50698749
        82    1        0.00000000       1.04224166       7.29575000      15.63374166
        83    1        0.00000000       2.08451251       4.16899583      14.59150000
        84    1        0.00000000       0.00000000       6.25350834      14.59150000
        85    1        0.00000000       2.08451251       6.25350834      12.50698749
        86    1        0.00000000       3.12675417       5.21123749      15.63374166
        87    1        0.00000000       3.12675417       7.29575000      13.54925834
        88    1        0.00000000       1.04224166       5.21123749      13.54925834
        89    1        0.00000000       0.00000000       4.16899583      16.67601251
        90    1        0.00000000       1.04224166       7.29575000      19.80273749
        91    1        0.00000000       2.08451251       4.16899583      18.76049583
        92    1        0.00000000       0.00000000       6.25350834      18.76049583
        93    1        0.00000000       2.08451251       6.25350834      16.67601251
        94    1        0.00000000       3.12675417       5.21123749      19.80273749
        95    1        0.00000000       3.12675417       7.29575000      17.71825417
        96    1        0.00000000       1.04224166       5.21123749      17.71825417
        97    1        0.00000000       0.00000000       4.16899583      20.84500834
        98    1        0.00000000       1.04224166       7.29575000      23.97176251
        99    1        0.00000000       2.08451251       4.16899583      22.92949166
       100    1        0.00000000       0.00000000       6.25350834      22.92949166
       101    1        0.00000000       2.08451251       6.25350834      20.84500834
       102    1        0.00000000       3.12675417       5.21123749      23.97176251
       103    1        0.00000000       3.12675417       7.29575000      21.88725000
       104    1        0.00000000       1.04224166       5.21123749      21.88725000
       105    1        0.00000000       0.00000000       4.16899583      25.01400417
       106    1        0.00000000       1.04224166       7.29575000      28.14075834
       107    1        0.00000000       2.08451251       4.16899583      27.09848749
       108    1        0.00000000       0.00000000       6.25350834      27.09848749
       109    1        0.00000000       2.08451251       6.25350834      25.01400417
       110    1        0.00000000       3.12675417       5.21123749      28.14075834
       111    1        0.00000000       3.12675417       7.29575000      26.05624583
       112    1        0.00000000       1.04224166       5.21123749      26.05624583
       113    1        0.00000000       0.00000000       8.33799166       0.00000000
       114    1        0.00000000       1.04224166      11.46474583       3.12675417
       115    1        0.00000000       2.08451251       8.33799166       2.08451251
       116    1        0.00000000       0.00000000      10.42250417       2.08451251
       117    1        0.00000000       2.08451251      10.42250417       0.00000000
       118    1        0.00000000       3.12675417       9.38026251       3.12675417
       119    1        0.00000000       3.12675417      11.46474583       1.04224166
       120    1        0.00000000       1.04224166       9.38026251       1.04224166
       121    1        0.00000000       0.00000000       8.33799166       4.16899583
       122    1        0.00000000       1.04224166      11.46474583       7.29575000
       123    1        0.00000000       2.08451251       8.33799166       6.25350834
       124    1        0.00000000       0.00000000      10.42250417       6.25350834
       125    1        0.00000000       2.08451251      10.42250417       4.16899583
       126    1        0.00000000       3.12675417       9.38026251       7.29575000
       127    1        0.00000000       3.12675417      11.46474583       5.21123749
       128    1        0.00000000       1.04224166       9.38026251       5.21123749
       129    1        0.00000000       0.00000000       8.33799166       8.33799166
       130    1        0.00000000       1.04224166      11.46474583      11.46474583
       131    1        0.00000000       2.08451251       8.33799166      10.42250417
       132    1        0.00000000       0.00000000      10.42250417      10.42250417
       133    1        0.00000000       2.08451251      10.42250417       8.33799166
       134    1        0.00000000       3.12675417       9.38026251      11.46474583
       135    1        0.00000000       3.12675417      11.46474583       9.38026251
       136    1        0.00000000       1.04224166       9.38026251       9.38026251
       137    1        0.00000000       0.00000000       8.33799166      12.50698749
       138    1        0.00000000       1.04224166      11.46474583      15.63374166
       139    1        0.00000000       2.08451251       8.33799166      14.59150000
       140    1        0.00000000       0.00000000      10.42250417      14.59150000
       141    1        0.00000000       2.08451251      10.42250417      12.50698749
       142    1        0.00000000       3.12675417       9.38026251      15.63374166
       143    1        0.00000000       3.12675417      11.46474583      13.54925834
       144    1        0.00000000       1.04224166       9.38026251      13.54925834
       145    1        0.00000000       0.00000000       8.33799166      16.67601251
       146    1        0.00000000       1.04224166      11.46474583      19.80273749
       147    1        0.00000000       2.08451251       8.33799166      18.76049583
       148    1        0.00000000       0.00000000      10.42250417      18.76049583
       149    1        0.00000000       2.08451251      10.42250417      16.67601251
       150    1        0.00000000       3.12675417       9.38026251      19.80273749
       151    1        0.00000000       3.12675417      11.46474583      17.71825417
       152    1        0.00000000       1.04224166       9.38026251      17.71825417
       153    1        0.00000000       0.00000000       8.33799166      20.84500834
       154    1        0.00000000       1.04224166      11.46474583      23.97176251
       155    1        0.00000000       2.08451251       8.33799166      22.92949166
       156    1        0.00000000       0.00000000      10.42250417      22.92949166
       157    1        0.00000000       2.08451251      10.42250417      20.84500834
       158    1        0.00000000       3.12675417       9.38026251      23.97176251
       159    1        0.00000000       3.12675417      11.46474583      21.88725000
       160    1        0.00000000       1.04224166       9.38026251      21.88725000
       161    1        0.00000000       0.00000000       8.33799166      25.01400417
       162    1        0.00000000       1.04224166      11.46474583      28.14075834
       163    1        0.00000000       2.08451251       8.33799166      27.09848749
       164    1        0.00000000       0.00000000      10.42250417      27.09848749
       165    1        0.00000000       2.08451251      10.42250417      25.01400417
       166    1        0.00000000       3.12675417       9.38026251      28.14075834
       167    1        0.00000000       3.12675417      11.46474583      26.05624583
       168    1        0.00000000       1.04224166       9.38026251      26.05624583
       169    1        0.00000000       0.00000000      12.50698749       0.00000000
       170    1        0.00000000       1.04224166      15.63374166       3.12675417
       171    1        0.00000000       2.08451251      12.50698749       2.08451251
       172    1        0.00000000       0.00000000      14.59150000       2.08451251
       173    1        0.00000000       2.08451251      14.59150000       0.00000000
       174    1        0.00000000       3.12675417      13.54925834       3.12675417
       175    1        0.00000000       3.12675417      15.63374166       1.04224166
       176    1        0.00000000       1.04224166      13.54925834       1.04224166
       177    1        0.00000000       0.00000000      12.50698749       4.16899583
       178    1        0.00000000       1.04224166      15.63374166       7.29575000
       179    1        0.00000000       2.08451251      12.50698749       6.25350834
       180    1        0.00000000       0.00000000      14.59150000       6.25350834
       181    1        0.00000000       2.08451251      14.59150000       4.16899583
       182    1        0.00000000       3.12675417      13.54925834       7.29575000
       183    1        0.00000000       3.12675417      15.63374166       5.21123749
       184    1        0.00000000       1.04224166      13.54925834       5.21123749
       185    1        0.00000000       0.00000000      12.50698749       8.33799166
       186    1        0.00000000       1.04224166      15.63374166      11.46474583
       187    1        0.00000000       2.08451251      12.50698749      10.42250417
       188    1        0.00000000       0.00000000      14.59150000      10.42250417
       189    1        0.00000000       2.08451251      14.59150000       8.33799166
       190    1        0.00000000       3.12675417      13.54925834      11.46474583
       191    1        0.00000000       3.12675417      15.63374166       9.38026251
       192    1        0.00000000       1.04224166      13.54925834       9.38026251
       193    1        0.00000000       0.00000000      12.50698749      12.50698749
       194    1        0.00000000       1.04224166      15.63374166      15.63374166
       195    1        0.00000000       2.08451251      12.50698749      14.59150000
       196    1        0.00000000       0.00000000      14.59150000      14.59150000
       197    1        0.00000000       2.08451251      14.59150000      12.50698749
       198    1        0.00000000       3.12675417      13.54925834      15.63374166
       199    1        0.00000000       3.12675417      15.63374166      13.54925834
       200    1        0.00000000       1.04224166      13.54925834      13.54925834
       201    1        0.00000000       0.00000000      12.50698749      16.67601251
       202    1        0.00000000       1.04224166      15.63374166      19.80273749
       203    1        0.00000000       2.08451251      12.50698749      18.76049583
       204    1        0.00000000       0.00000000      14.59150000      18.76049583
       205    1        0.00000000       2.08451251      14.59150000      16.67601251
       206    1        0.00000000       3.12675417      13.54925834      19.80273749
       207    1        0.00000000       3.12675417      15.63374166      17.71825417
       208    1        0.00000000       1.04224166      13.54925834      17.71825417
       209    1        0.00000000       0.00000000      12.50698749      20.84500834
       210    1        0.00000000       1.04224166      15.63374166      23.97176251
       211    1        0.00000000       2.08451251      12.50698749      22.92949166
       212    1        0.00000000       0.00000000      14.59150000      22.92949166
       213    1        0.00000000       2.08451251      14.59150000      20.84500834
       214    1        0.00000000       3.12675417      13.54925834      23.97176251
       215    1        0.00000000       3.12675417      15.63374166      21.88725000
       216    1        0.00000000       1.04224166      13.54925834      21.88725000
       217    1        0.00000000       0.00000000      12.50698749      25.01400417
       218    1        0.00000000       1.04224166      15.63374166      28.14075834
       219    1        0.00000000       2.08451251      12.50698749      27.09848749
       220    1        0.00000000       0.00000000      14.59150000      27.09848749
       221    1        0.00000000       2.08451251      14.59150000      25.01400417
       222    1        0.00000000       3.12675417      13.54925834      28.14075834
       223    1        0.00000000       3.12675417      15.63374166      26.05624583
       224    1        0.00000000       1.04224166      13.54925834      26.05624583
       225    1        0.00000000       0.00000000      16.67601251       0.00000000
       226    1        0.00000000       1.04224166      19.80273749       3.12675417
       227    1        0.00000000       2.08451251      16.67601251       2.08451251
       228    1        0.00000000       0.00000000      18.76049583       2.08451251
       229    1        0.00000000       2.08451251      18.76049583       0.00000000
       230    1        0.00000000       3.12675417      17.71825417       3.12675417
       231    1        0.00000000       3.12675417      19.80273749       1.04224166
       232    1        0.00000000       1.04224166      17.71825417       1.04224166
       233    1        0.00000000       0.00000000      16.67601251       4.16899583
       234    1        0.00000000       1.04224166      19.80273749       7.29575000
       235    1        0.00000000       2.08451251      16.67601251       6.25350834
       236    1        0.00000000       0.00000000      18.76049583       6.25350834
       237    1        0.00000000       2.08451251      18.76049583       4.16899583
       238    1        0.00000000       3.12675417      17.71825417       7.29575000
       239    1        0.00000000       3.12675417      19.80273749       5.21123749
       240    1        0.00000000       1.04224166      17.71825417       5.21123749
       241    1        0.00000000       0.00000000      16.67601251       8.33799166
       242    1        0.00000000       1.04224166      19.80273749      11.46474583
       243    1        0.00000000       2.08451251      16.67601251      10.42250417
       244    1        0.00000000       0.00000000      18.76049583      10.42250417
       245    1        0.00000000       2.08451251      18.76049583       8.33799166
       246    1        0.00000000       3.12675417      17.71825417      11.46474583
       247    1        0.00000000       3.12675417      19.80273749       9.38026251
       248    1        0.00000000       1.04224166      17.71825417       9.38026251
       249    1        0.00000000       0.00000000      16.67601251      12.50698749
       250    1        0.00000000       1.04224166      19.80273749      15.63374166
       251    1        0.00000000       2.08451251      16.67601251      14.59150000
       252    1        0.00000000       0.00000000      18.76049583      14.59150000
       253    1        0.00000000       2.08451251      18.76049583      12.50698749
       254    1        0.00000000       3.12675417      17.71825417      15.63374166
       255    1        0.00000000       3.12675417      19.80273749      13.54925834
       256    1        0.00000000       1.04224166      17.71825417      13.54925834
       257    1        0.00000000       0.00000000      16.67601251      16.67601251
       258    1        0.00000000       1.04224166      19.80273749      19.80273749
       259    1        0.00000000       2.08451251      16.67601251      18.76049583
       260    1        0.00000000       0.00000000      18.76049583      18.76049583
       261    1        0.00000000       2.08451251      18.76049583      16.67601251
       262    1        0.00000000       3.12675417      17.71825417      19.80273749
       263    1        0.00000000       3.12675417      19.80273749      17.71825417
       264    1        0.00000000       1.04224166      17.71825417      17.71825417
       265    1        0.00000000       0.00000000      16.67601251      20.84500834
       266    1        0.00000000       1.04224166      19.80273749      23.97176251
       267    1        0.00000000       2.08451251      16.67601251      22.92949166
       268    1        0.00000000       0.00000000      18.76049583      22.92949166
       269    1        0.00000000       2.08451251      18.76049583      20.84500834
       270    1        0.00000000       3.12675417      17.71825417      23.97176251
       271    1        0.00000000       3.12675417      19.80273749      21.88725000
       272    1        0.00000000       1.04224166      17.71825417      21.88725000
       273    1        0.00000000       0.00000000      16.67601251      25.01400417
       274    1        0.00000000       1.04224166      19.80273749      28.14075834
       275    1        0.00000000       2.08451251      16.67601251      27.09848749
       276    1        0.00000000       0.00000000      18.76049583      27.09848749
       277    1        0.00000000       2.08451251      18.76049583      25.01400417
       278    1        0.00000000       3.12675417      17.71825417      28.14075834
       279    1        0.00000000       3.12675417      19.80273749      26.05624583
       280    1        0.00000000       1.04224166      17.71825417      26.05624583
       281    1        0.00000000       0.00000000      20.84500834       0.00000000
       282    1        0.00000000       1.04224166      23.97176251       3.12675417
       283    1        0.00000000       2.08451251      20.84500834       2.08451251
       284    1        0.00000000       0.00000000      22.92949166       2.08451251
       285    1        0.00000000       2.08451251      22.92949166       0.00000000
       286    1        0.00000000       3.12675417      21.88725000       3.12675417
       287    1        0.00000000       3.12675417      23.97176251       1.04224166
       288    1        0.00000000       1.04224166      21.88725000       1.04224166
       289    1        0.00000000       0.00000000      20.84500834       4.16899583
       290    1        0.00000000       1.04224166      23.97176251       7.29575000
       291    1        0.00000000       2.08451251      20.84500834       6.25350834
       292    1        0.00000000       0.00000000      22.92949166       6.25350834
       293    1        0.00000000       2.08451251      22.92949166       4.16899583
       294    1        0.00000000       3.12675417      21.88725000       7.29575000
       295    1        0.00000000       3.12675417      23.97176251       5.21123749
       296    1        0.00000000       1.04224166      21.88725000       5.21123749
       297    1        0.00000000       0.00000000      20.84500834       8.33799166
       298    1        0.00000000       1.04224166      23.97176251      11.46474583
       299    1        0.00000000       2.08451251      20.84500834      10.42250417
       300    1        0.00000000       0.00000000      22.92949166      10.42250417
       301    1        0.00000000       2.08451251      22.92949166       8.33799166
       302    1        0.00000000       3.12675417      21.88725000      11.46474583
       303    1        0.00000000       3.12675417      23.97176251       9.38026251
       304    1        0.00000000       1.04224166      21.88725000       9.38026251
       305    1        0.00000000       0.00000000      20.84500834      12.50698749
       306    1        0.00000000       1.04224166      23.97176251      15.63374166
       307    1        0.00000000       2.08451251      20.84500834      14.59150000
       308    1        0.00000000       0.00000000      22.92949166      14.59150000
       309    1        0.00000000       2.08451251      22.92949166      12.50698749
       310    1        0.00000000       3.12675417      21.88725000      15.63374166
       311    1        0.00000000       3.12675417      23.97176251      13.54925834
       312    1        0.00000000       1.04224166      21.88725000      13.54925834
       313    1        0.00000000       0.00000000      20.84500834      16.67601251
       314    1        0.00000000       1.04224166      23.97176251      19.80273749
       315    1        0.00000000       2.08451251      20.84500834      18.76049583
       316    1        0.00000000       0.00000000      22.92949166      18.76049583
       317    1        0.00000000       2.08451251      22.92949166      16.67601251
       318    1        0.00000000       3.12675417      21.88725000      19.80273749
       319    1        0.00000000       3.12675417      23.97176251      17.71825417
       320    1        0.00000000       1.04224166      21.88725000      17.71825417
       321    1        0.00000000       0.00000000      20.84500834      20.84500834
       322    1        0.00000000       1.04224166      23.97176251      23.97176251
       323    1        0.00000000       2.08451251      20.84500834      22.92949166
       324    1        0.00000000       0.00000000      22.92949166      22.92949166
       325    1        0.00000000       2.08451251      22.92949166      20.84500834
       326    1        0.00000000       3.12675417      21.88725000      23.97176251
       327    1        0.00000000       3.12675417      23.97176251      21.88725000
       328    1        0.00000000       1.04224166      21.88725000      21.88725000
       329    1        0.00000000       0.00000000      20.84500834      25.01400417
       330    1        0.00000000       1.04224166      23.97176251      28.14075834
       331    1        0.00000000       2.08451251      20.84500834      27.09848749
       332    1        0.00000000       0.00000000      22.92949166      27.09848749
       333    1        0.00000000       2.08451251      22.92949166      25.01400417
       334    1        0.00000000       3.12675417      21.88725000      28.14075834
       335    1        0.00000000       3.12675417      23.97176251      26.05624583
       336    1        0.00000000       1.04224166      21.88725000      26.05624583
       337    1        0.00000000       0.00000000      25.01400417       0.00000000
       338    1        0.00000000       1.04224166      28.14075834       3.12675417
       339    1        0.00000000       2.08451251      25.01400417       2.08451251
       340    1        0.00000000       0.00000000      27.09848749       2.08451251
       341    1        0.00000000       2.08451251      27.09848749       0.00000000
       342    1        0.00000000       3.12675417      26.05624583       3.12675417
       343    1        0.00000000       3.12675417      28.14075834       1.04224166
       344    1        0.00000000       1.04224166      26.05624583       1.04224166
       345    1        0.00000000       0.00000000      25.01400417       4.16899583
       346    1        0.00000000       1.04224166      28.14075834       7.29575000
       347    1        0.00000000       2.08451251      25.01400417       6.25350834
       348    1        0.00000000       0.00000000      27.09848749       6.25350834
       349    1        0.00000000       2.08451251      27.09848749       4.16899583
       350    1        0.00000000       3.12675417      26.05624583       7.29575000