 # C1

        2048  atoms
           1  atom types

      0.00000000      19.74178893  xlo xhi
      0.00000000      17.09689106  ylo yhi
      0.00000000      69.48030100  zlo zhi
     -9.87089403       0.00000000       0.00000000  xy xz yz

Masses

           1   12.01070000    # C 

Atoms # charge

         1    1        0.00000000       0.00000000       0.00000000       2.17125941
         2    1        0.00000000       0.71237616       1.23385196       6.51377822
         3    1        0.00000000       0.00000000       0.00000000       6.51377822
         4    1        0.00000000       1.42473522       0.00000991       2.17125941
         5    1        0.00000000       0.00000000       0.00000000      10.85629703
         6    1        0.00000000       0.71237616       1.23385196      15.19881584
         7    1        0.00000000       0.00000000       0.00000000      15.19881584
         8    1        0.00000000       1.42473522       0.00000991      10.85629703
         9    1        0.00000000       0.00000000       0.00000000      19.54133466
        10    1        0.00000000       0.71237616       1.23385196      23.88385347
        11    1        0.00000000       0.00000000       0.00000000      23.88385347
        12    1        0.00000000       1.42473522       0.00000991      19.54133466
        13    1        0.00000000       0.00000000       0.00000000      28.22637228
        14    1        0.00000000       0.71237616       1.23385196      32.56889109
        15    1        0.00000000       0.00000000       0.00000000      32.56889109
        16    1        0.00000000       1.42473522       0.00000991      28.22637228
        17    1        0.00000000       0.00000000       0.00000000      36.91140991
        18    1        0.00000000       0.71237616       1.23385196      41.25392872
        19    1        0.00000000       0.00000000       0.00000000      41.25392872
        20    1        0.00000000       1.42473522       0.00000991      36.91140991
        21    1        0.00000000       0.00000000       0.00000000      45.59644753
        22    1        0.00000000       0.71237616       1.23385196      49.93896634
        23    1        0.00000000       0.00000000       0.00000000      49.93896634
        24    1        0.00000000       1.42473522       0.00000991      45.59644753
        25    1        0.00000000       0.00000000       0.00000000      54.28148516
        26    1        0.00000000       0.71237616       1.23385196      58.62400397
        27    1        0.00000000       0.00000000       0.00000000      58.62400397
        28    1        0.00000000       1.42473522       0.00000991      54.28148516
        29    1        0.00000000       0.00000000       0.00000000      62.96652278
        30    1        0.00000000       0.71237616       1.23385196      67.30904159
        31    1        0.00000000       0.00000000       0.00000000      67.30904159
        32    1        0.00000000       1.42473522       0.00000991      62.96652278
        33    1        0.00000000       0.00000000       2.46772363       2.17125941
        34    1        0.00000000       0.71237616       3.70157559       6.51377822
        35    1        0.00000000       0.00000000       2.46772363       6.51377822
        36    1        0.00000000       1.42473522       2.46773354       2.17125941
        37    1        0.00000000       0.00000000       2.46772363      10.85629703
        38    1        0.00000000       0.71237616       3.70157559      15.19881584
        39    1        0.00000000       0.00000000       2.46772363      15.19881584
        40    1        0.00000000       1.42473522       2.46773354      10.85629703
        41    1        0.00000000       0.00000000       2.46772363      19.54133466
        42    1        0.00000000       0.71237616       3.70157559      23.88385347
        43    1        0.00000000       0.00000000       2.46772363      23.88385347
        44    1        0.00000000       1.42473522       2.46773354      19.54133466
        45    1        0.00000000       0.00000000       2.46772363      28.22637228
        46    1        0.00000000       0.71237616       3.70157559      32.56889109
        47    1        0.00000000       0.00000000       2.46772363      32.56889109
        48    1        0.00000000       1.42473522       2.46773354      28.22637228
        49    1        0.00000000       0.00000000       2.46772363      36.91140991
        50    1        0.00000000       0.71237616       3.70157559      41.25392872
        51    1        0.00000000       0.00000000       2.46772363      41.25392872
        52    1        0.00000000       1.42473522       2.46773354      36.91140991
        53    1        0.00000000       0.00000000       2.46772363      45.59644753
        54    1        0.00000000       0.71237616       3.70157559      49.93896634
        55    1        0.00000000       0.00000000       2.46772363      49.93896634
        56    1        0.00000000       1.42473522       2.46773354      45.59644753
        57    1        0.00000000       0.00000000       2.46772363      54.28148516
        58    1        0.00000000       0.71237616       3.70157559      58.62400397
        59    1        0.00000000       0.00000000       2.46772363      58.62400397
        60    1        0.00000000       1.42473522       2.46773354      54.28148516
        61    1        0.00000000       0.00000000       2.46772363      62.96652278
        62    1        0.00000000       0.71237616       3.70157559      67.30904159
        63    1        0.00000000       0.00000000       2.46772363      67.30904159
        64    1        0.00000000       1.42473522       2.46773354      62.96652278
        65    1        0.00000000       0.00000000       4.93544725       2.17125941
        66    1        0.00000000       0.71237616       6.16929921       6.51377822
        67    1        0.00000000       0.00000000       4.93544725       6.51377822
        68    1        0.00000000       1.42473522       4.93545716       2.17125941
        69    1        0.00000000       0.00000000       4.93544725      10.85629703
        70    1        0.00000000       0.71237616       6.16929921      15.19881584
        71    1        0.00000000       0.00000000       4.93544725      15.19881584
        72    1        0.00000000       1.42473522       4.93545716      10.85629703
        73    1        0.00000000       0.00000000       4.93544725      19.54133466
        74    1        0.00000000       0.71237616       6.16929921      23.88385347
        75    1        0.00000000       0.00000000       4.93544725      23.88385347
        76    1        0.00000000       1.42473522       4.93545716      19.54133466
        77    1        0.00000000       0.00000000       4.93544725      28.22637228
        78    1        0.00000000       0.71237616       6.16929921      32.56889109
        79    1        0.00000000       0.00000000       4.93544725      32.56889109
        80    1        0.00000000       1.42473522       4.93545716      28.22637228
        81    1        0.00000000       0.00000000       4.93544725      36.91140991
        82    1        0.00000000       0.71237616       6.16929921      41.25392872
        83    1        0.00000000       0.00000000       4.93544725      41.25392872
        84    1        0.00000000       1.42473522       4.93545716      36.91140991
        85    1        0.00000000       0.00000000       4.93544725      45.59644753
        86    1        0.00000000       0.71237616       6.16929921      49.93896634
        87    1        0.00000000       0.00000000       4.93544725      49.93896634
        88    1        0.00000000       1.42473522       4.93545716      45.59644753
        89    1        0.00000000       0.00000000       4.93544725      54.28148516
        90    1        0.00000000       0.71237616       6.16929921      58.62400397
        91    1        0.00000000       0.00000000       4.93544725      58.62400397
        92    1        0.00000000       1.42473522       4.93545716      54.28148516
        93    1        0.00000000       0.00000000       4.93544725      62.96652278
        94    1        0.00000000       0.71237616       6.16929921      67.30904159
        95    1        0.00000000       0.00000000       4.93544725      67.30904159
        96    1        0.00000000       1.42473522       4.93545716      62.96652278
        97    1        0.00000000       0.00000000       7.40317088       2.17125941
        98    1        0.00000000       0.71237616       8.63702284       6.51377822
        99    1        0.00000000       0.00000000       7.40317088       6.51377822
       100    1        0.00000000       1.42473522       7.40318079       2.17125941
       101    1        0.00000000       0.00000000       7.40317088      10.85629703
       102    1        0.00000000       0.71237616       8.63702284      15.19881584
       103    1        0.00000000       0.00000000       7.40317088      15.19881584
       104    1        0.00000000       1.42473522       7.40318079      10.85629703
       105    1        0.00000000       0.00000000       7.40317088      19.54133466
       106    1        0.00000000       0.71237616       8.63702284      23.88385347
       107    1        0.00000000       0.00000000       7.40317088      23.88385347
       108    1        0.00000000       1.42473522       7.40318079      19.54133466
       109    1        0.00000000       0.00000000       7.40317088      28.22637228
       110    1        0.00000000       0.71237616       8.63702284      32.56889109
       111    1        0.00000000       0.00000000       7.40317088      32.56889109
       112    1        0.00000000       1.42473522       7.40318079      28.22637228
       113    1        0.00000000       0.00000000       7.40317088      36.91140991
       114    1        0.00000000       0.71237616       8.63702284      41.25392872
       115    1        0.00000000       0.00000000       7.40317088      41.25392872
       116    1        0.00000000       1.42473522       7.40318079      36.91140991
       117    1        0.00000000       0.00000000       7.40317088      45.59644753
       118    1        0.00000000       0.71237616       8.63702284      49.93896634
       119    1        0.00000000       0.00000000       7.40317088      49.93896634
       120    1        0.00000000       1.42473522       7.40318079      45.59644753
       121    1        0.00000000       0.00000000       7.40317088      54.28148516
       122    1        0.00000000       0.71237616       8.63702284      58.62400397
       123    1        0.00000000       0.00000000       7.40317088      58.62400397
       124    1        0.00000000       1.42473522       7.40318079      54.28148516
       125    1        0.00000000       0.00000000       7.40317088      62.96652278
       126    1        0.00000000       0.71237616       8.63702284      67.30904159
       127    1        0.00000000       0.00000000       7.40317088      67.30904159
       128    1        0.00000000       1.42473522       7.40318079      62.96652278
       129    1        0.00000000       0.00000000       9.87089450       2.17125941
       130    1        0.00000000       0.71237616      11.10474646       6.51377822
       131    1        0.00000000       0.00000000       9.87089450       6.51377822
       132    1        0.00000000       1.42473522       9.87090441       2.17125941
       133    1        0.00000000       0.00000000       9.87089450      10.85629703
       134    1        0.00000000       0.71237616      11.10474646      15.19881584
       135    1        0.00000000       0.00000000       9.87089450      15.19881584
       136    1        0.00000000       1.42473522       9.87090441      10.85629703
       137    1        0.00000000       0.00000000       9.87089450      19.54133466
       138    1        0.00000000       0.71237616      11.10474646      23.88385347
       139    1        0.00000000       0.00000000       9.87089450      23.88385347
       140    1        0.00000000       1.42473522       9.87090441      19.54133466
       141    1        0.00000000       0.00000000       9.87089450      28.22637228
       142    1        0.00000000       0.71237616      11.10474646      32.56889109
       143    1        0.00000000       0.00000000       9.87089450      32.56889109
       144    1        0.00000000       1.42473522       9.87090441      28.22637228
       145    1        0.00000000       0.00000000       9.87089450      36.91140991
       146    1        0.00000000       0.71237616      11.10474646      41.25392872
       147    1        0.00000000       0.00000000       9.87089450      41.25392872
       148    1        0.00000000       1.42473522       9.87090441      36.91140991
       149    1        0.00000000       0.00000000       9.87089450      45.59644753
       150    1        0.00000000       0.71237616      11.10474646      49.93896634
       151    1        0.00000000       0.00000000       9.87089450      49.93896634
       152    1        0.00000000       1.42473522       9.87090441      45.59644753
       153    1        0.00000000       0.00000000       9.87089450      54.28148516
       154    1        0.00000000       0.71237616      11.10474646      58.62400397
       155    1        0.00000000       0.00000000       9.87089450      58.62400397
       156    1        0.00000000       1.42473522       9.87090441      54.28148516
       157    1        0.00000000       0.00000000       9.87089450      62.96652278
       158    1        0.00000000       0.71237616      11.10474646      67.30904159
       159    1        0.00000000       0.00000000       9.87089450      67.30904159
       160    1        0.00000000       1.42473522       9.87090441      62.96652278
       161    1        0.00000000       0.00000000      12.33861812       2.17125941
       162    1        0.00000000       0.71237616      13.57247009       6.51377822
       163    1        0.00000000       0.00000000      12.33861812       6.51377822
       164    1        0.00000000       1.42473522      12.33862804       2.17125941
       165    1        0.00000000       0.00000000      12.33861812      10.85629703
       166    1        0.00000000       0.71237616      13.57247009      15.19881584
       167    1        0.00000000       0.00000000      12.33861812      15.19881584
       168    1        0.00000000       1.42473522      12.33862804      10.85629703
       169    1        0.00000000       0.00000000      12.33861812      19.54133466
       170    1        0.00000000       0.71237616      13.57247009      23.88385347
       171    1        0.00000000       0.00000000      12.33861812      23.88385347
       172    1        0.00000000       1.42473522      12.33862804      19.54133466
       173    1        0.00000000       0.00000000      12.33861812      28.22637228
       174    1        0.00000000       0.71237616      13.57247009      32.56889109
       175    1        0.00000000       0.00000000      12.33861812      32.56889109
       176    1        0.00000000       1.42473522      12.33862804      28.22637228
       177    1        0.00000000       0.00000000      12.33861812      36.91140991
       178    1        0.00000000       0.71237616      13.57247009      41.25392872
       179    1        0.00000000       0.00000000      12.33861812      41.25392872
       180    1        0.00000000       1.42473522      12.33862804      36.91140991
       181    1        0.00000000       0.00000000      12.33861812      45.59644753
       182    1        0.00000000       0.71237616      13.57247009      49.93896634
       183    1        0.00000000       0.00000000      12.33861812      49.93896634
       184    1        0.00000000       1.42473522      12.33862804      45.59644753
       185    1        0.00000000       0.00000000      12.33861812      54.28148516
       186    1        0.00000000       0.71237616      13.57247009      58.62400397
       187    1        0.00000000       0.00000000      12.33861812      58.62400397
       188    1        0.00000000       1.42473522      12.33862804      54.28148516
       189    1        0.00000000       0.00000000      12.33861812      62.96652278
       190    1        0.00000000       0.71237616      13.57247009      67.30904159
       191    1        0.00000000       0.00000000      12.33861812      67.30904159
       192    1        0.00000000       1.42473522      12.33862804      62.96652278
       193    1        0.00000000       0.00000000      14.80634175       2.17125941
       194    1        0.00000000       0.71237616      16.04019371       6.51377822
       195    1        0.00000000       0.00000000      14.80634175       6.51377822
       196    1        0.00000000       1.42473522      14.80635166       2.17125941
       197    1        0.00000000       0.00000000      14.80634175      10.85629703
       198    1        0.00000000       0.71237616      16.04019371      15.19881584
       199    1        0.00000000       0.00000000      14.80634175      15.19881584
       200    1        0.00000000       1.42473522      14.80635166      10.85629703
       201    1        0.00000000       0.00000000      14.80634175      19.54133466
       202    1        0.00000000       0.71237616      16.04019371      23.88385347
       203    1        0.00000000       0.00000000      14.80634175      23.88385347
       204    1        0.00000000       1.42473522      14.80635166      19.54133466
       205    1        0.00000000       0.00000000      14.80634175      28.22637228
       206    1        0.00000000       0.71237616      16.04019371      32.56889109
       207    1        0.00000000       0.00000000      14.80634175      32.56889109
       208    1        0.00000000       1.42473522      14.80635166      28.22637228
       209    1        0.00000000       0.00000000      14.80634175      36.91140991
       210    1        0.00000000       0.71237616      16.04019371      41.25392872
       211    1        0.00000000       0.00000000      14.80634175      41.25392872
       212    1        0.00000000       1.42473522      14.80635166      36.91140991
       213    1        0.00000000       0.00000000      14.80634175      45.59644753
       214    1        0.00000000       0.71237616      16.04019371      49.93896634
       215    1        0.00000000       0.00000000      14.80634175      49.93896634
       216    1        0.00000000       1.42473522      14.80635166      45.59644753
       217    1        0.00000000       0.00000000      14.80634175      54.28148516
       218    1        0.00000000       0.71237616      16.04019371      58.62400397
       219    1        0.00000000       0.00000000      14.80634175      58.62400397
       220    1        0.00000000       1.42473522      14.80635166      54.28148516
       221    1        0.00000000       0.00000000      14.80634175      62.96652278
       222    1        0.00000000       0.71237616      16.04019371      67.30904159
       223    1        0.00000000       0.00000000      14.80634175      67.30904159
       224    1        0.00000000       1.42473522      14.80635166      62.96652278
       225    1        0.00000000       0.00000000      17.27406537       2.17125941
       226    1        0.00000000       0.71237616      18.50791734       6.51377822
       227    1        0.00000000       0.00000000      17.27406537       6.51377822
       228    1        0.00000000       1.42473522      17.27407529       2.17125941
       229    1        0.00000000       0.00000000      17.27406537      10.85629703
       230    1        0.00000000       0.71237616      18.50791734      15.19881584
       231    1        0.00000000       0.00000000      17.27406537      15.19881584
       232    1        0.00000000       1.42473522      17.27407529      10.85629703
       233    1        0.00000000       0.00000000      17.27406537      19.54133466
       234    1        0.00000000       0.71237616      18.50791734      23.88385347
       235    1        0.00000000       0.00000000      17.27406537      23.88385347
       236    1        0.00000000       1.42473522      17.27407529      19.54133466
       237    1        0.00000000       0.00000000      17.27406537      28.22637228
       238    1        0.00000000       0.71237616      18.50791734      32.56889109
       239    1        0.00000000       0.00000000      17.27406537      32.56889109
       240    1        0.00000000       1.42473522      17.27407529      28.22637228
       241    1        0.00000000       0.00000000      17.27406537      36.91140991
       242    1        0.00000000       0.71237616      18.50791734      41.25392872
       243    1        0.00000000       0.00000000      17.27406537      41.25392872
       244    1        0.00000000       1.42473522      17.27407529      36.91140991
       245    1        0.00000000       0.00000000      17.27406537      45.59644753
       246    1        0.00000000       0.71237616      18.50791734      49.93896634
       247    1        0.00000000       0.00000000      17.27406537      49.93896634
       248    1        0.00000000       1.42473522      17.27407529      45.59644753
       249    1        0.00000000       0.00000000      17.27406537      54.28148516
       250    1        0.00000000       0.71237616      18.50791734      58.62400397
       251    1        0.00000000       0.00000000      17.27406537      58.62400397
       252    1        0.00000000       1.42473522      17.27407529      54.28148516
       253    1        0.00000000       0.00000000      17.27406537      62.96652278
       254    1        0.00000000       0.71237616      18.50791734      67.30904159
       255    1        0.00000000       0.00000000      17.27406537      67.30904159
       256    1        0.00000000       1.42473522      17.27407529      62.96652278
       257    1        0.00000000       2.13711137      -1.23386175       2.17125941
       258    1        0.00000000       2.84948753      -0.00000979       6.51377822
       259    1        0.00000000       2.13711137      -1.23386175       6.51377822
       260    1        0.00000000       3.56184659      -1.23385184       2.17125941
       261    1        0.00000000       2.13711137      -1.23386175      10.85629703
       262    1        0.00000000       2.84948753      -0.00000979      15.19881584
       263    1        0.00000000       2.13711137      -1.23386175      15.19881584
       264    1        0.00000000       3.56184659      -1.23385184      10.85629703
       265    1        0.00000000       2.13711137      -1.23386175      19.54133466
       266    1        0.00000000       2.84948753      -0.00000979      23.88385347
       267    1        0.00000000       2.13711137      -1.23386175      23.88385347
       268    1        0.00000000       3.56184659      -1.23385184      19.54133466
       269    1        0.00000000       2.13711137      -1.23386175      28.22637228
       270    1        0.00000000       2.84948753      -0.00000979      32.56889109
       271    1        0.00000000       2.13711137      -1.23386175      32.56889109
       272    1        0.00000000       3.56184659      -1.23385184      28.22637228
       273    1        0.00000000       2.13711137      -1.23386175      36.91140991
       274    1        0.00000000       2.84948753      -0.00000979      41.25392872
       275    1        0.00000000       2.13711137      -1.23386175      41.25392872
       276    1        0.00000000       3.56184659      -1.23385184      36.91140991
       277    1        0.00000000       2.13711137      -1.23386175      45.59644753
       278    1        0.00000000       2.84948753      -0.00000979      49.93896634
       279    1        0.00000000       2.13711137      -1.23386175      49.93896634
       280    1        0.00000000       3.56184659      -1.23385184      45.59644753
       281    1        0.00000000       2.13711137      -1.23386175      54.28148516
       282    1        0.00000000       2.84948753      -0.00000979      58.62400397
       283    1        0.00000000       2.13711137      -1.23386175      58.62400397
       284    1        0.00000000       3.56184659      -1.23385184      54.28148516
       285    1        0.00000000       2.13711137      -1.23386175      62.96652278
       286    1        0.00000000       2.84948753      -0.00000979      67.30904159
       287    1        0.00000000       2.13711137      -1.23386175      67.30904159
       288    1        0.00000000       3.56184659      -1.23385184      62.96652278
       289    1        0.00000000       2.13711137       1.23386188       2.17125941
       290    1        0.00000000       2.84948753       2.46771384       6.51377822
       291    1        0.00000000       2.13711137       1.23386188       6.51377822
       292    1        0.00000000       3.56184659       1.23387179       2.17125941
       293    1        0.00000000       2.13711137       1.23386188      10.85629703
       294    1        0.00000000       2.84948753       2.46771384      15.19881584
       295    1        0.00000000       2.13711137       1.23386188      15.19881584
       296    1        0.00000000       3.56184659       1.23387179      10.85629703
       297    1        0.00000000       2.13711137       1.23386188      19.54133466
       298    1        0.00000000       2.84948753       2.46771384      23.88385347
       299    1        0.00000000       2.13711137       1.23386188      23.88385347
       300    1        0.00000000       3.56184659       1.23387179      19.54133466
       301    1        0.00000000       2.13711137       1.23386188      28.22637228
       302    1        0.00000000       2.84948753       2.46771384      32.56889109
       303    1        0.00000000       2.13711137       1.23386188      32.56889109
       304    1        0.00000000       3.56184659       1.23387179      28.22637228
       305    1        0.00000000       2.13711137       1.23386188      36.91140991
       306    1        0.00000000       2.84948753       2.46771384      41.25392872
       307    1        0.00000000       2.13711137       1.23386188      41.25392872
       308    1        0.00000000       3.56184659       1.23387179      36.91140991
       309    1        0.00000000       2.13711137       1.23386188      45.59644753
       310    1        0.00000000       2.84948753       2.46771384      49.93896634
       311    1        0.00000000       2.13711137       1.23386188      49.93896634
       312    1        0.00000000       3.56184659       1.23387179      45.59644753
       313    1        0.00000000       2.13711137       1.23386188      54.28148516
       314    1        0.00000000       2.84948753       2.46771384      58.62400397
       315    1        0.00000000       2.13711137       1.23386188      58.62400397
       316    1        0.00000000       3.56184659       1.23387179      54.28148516
       317    1        0.00000000       2.13711137       1.23386188      62.96652278
       318    1        0.00000000       2.84948753       2.46771384      67.30904159
       319    1        0.00000000       2.13711137       1.23386188      67.30904159
       320    1        0.00000000       3.56184659       1.23387179      62.96652278
       321    1        0.00000000       2.13711137       3.70158550       2.17125941
       322    1        0.00000000       2.84948753       4.93543746       6.51377822
       323    1        0.00000000       2.13711137       3.70158550       6.51377822
       324    1        0.00000000       3.56184659       3.70159541       2.17125941
       325    1        0.00000000       2.13711137       3.70158550      10.85629703
       326    1        0.00000000       2.84948753       4.93543746      15.19881584
       327    1        0.00000000       2.13711137       3.70158550      15.19881584
       328    1        0.00000000       3.56184659       3.70159541      10.85629703
       329    1        0.00000000       2.13711137       3.70158550      19.54133466
       330    1        0.00000000       2.84948753       4.93543746      23.88385347
       331    1        0.00000000       2.13711137       3.70158550      23.88385347
       332    1        0.00000000       3.56184659       3.70159541      19.54133466
       333    1        0.00000000       2.13711137       3.70158550      28.22637228
       334    1        0.00000000       2.84948753       4.93543746      32.56889109
       335    1        0.00000000       2.13711137       3.70158550      32.56889109
       336    1        0.00000000       3.56184659       3.70159541      28.22637228
       337    1        0.00000000       2.13711137       3.70158550      36.91140991
       338    1        0.00000000       2.84948753       4.93543746      41.25392872
       339    1        0.00000000       2.13711137       3.70158550      41.25392872
       340    1        0.00000000       3.56184659       3.70159541      36.91140991
       341    1        0.00000000       2.13711137       3.70158550      45.59644753
       342    1        0.00000000       2.84948753       4.93543746      49.93896634
       343    1        0.00000000       2.13711137       3.70158550      49.93896634
       344    1        0.00000000       3.56184659       3.70159541      45.59644753
       345    1        0.00000000       2.13711137       3.70158550      54.28148516
       346    1        0.00000000       2.84948753       4.93543746      58.62400397
       347    1        0.00000000       2.13711137       3.70158550      58.62400397
       348    1        0.00000000       3.56184659       3.70159541      54.28148516
       349    1        0.00000000       2.13711137       3.70158550      62.96652278